REMARK SMILES CC(C)(C)CC(C)(C)c1ccc(O)cc1
REMARK SMILES IDX 6 1 7 2 8 3 5 4 2 5 1 6 3 7 4 8 9 9 10 10 15 11 11 12 14 13
REMARK SMILES IDX 12 14 13 15
REMARK H PARENT 13 16
ROOT
ATOM      1  C   UNL     1       0.269  -0.716   0.062  1.00  0.00    -0.010 C 
ATOM      2  C   UNL     1       0.006  -1.415   1.410  1.00  0.00     0.016 C 
ATOM      3  C   UNL     1       0.352  -1.835  -1.006  1.00  0.00     0.016 C 
ENDROOT
BRANCH   1   4
ATOM      4  C   UNL     1      -0.834   0.344  -0.288  1.00  0.00     0.017 C 
BRANCH   4   5
ATOM      5  C   UNL     1      -2.369   0.075  -0.173  1.00  0.00    -0.037 C 
ATOM      6  C   UNL     1      -2.820  -1.223  -0.852  1.00  0.00     0.011 C 
ATOM      7  C   UNL     1      -3.083   1.249  -0.892  1.00  0.00     0.011 C 
ATOM      8  C   UNL     1      -2.856   0.088   1.287  1.00  0.00     0.011 C 
ENDBRANCH   4   5
ENDBRANCH   1   4
BRANCH   1   9
ATOM      9  C   UNL     1       1.621   0.056   0.069  1.00  0.00    -0.042 A 
ATOM     10  C   UNL     1       2.303   0.377   1.258  1.00  0.00     0.008 A 
ATOM     11  C   UNL     1       2.193   0.503  -1.141  1.00  0.00     0.008 A 
ATOM     12  C   UNL     1       3.510   1.087   1.240  1.00  0.00     0.046 A 
ATOM     13  C   UNL     1       3.397   1.212  -1.162  1.00  0.00     0.046 A 
ATOM     14  C   UNL     1       4.048   1.496   0.028  1.00  0.00     0.115 A 
BRANCH  14  15
ATOM     15  O   UNL     1       5.219   2.190  -0.035  1.00  0.00    -0.508 OA
ATOM     16  H   UNL     1       5.554   2.310   0.869  1.00  0.00     0.293 HD
ENDBRANCH  14  15
ENDBRANCH   1   9
TORSDOF 4
