REMARK SMILES O=C(c1ccc(O)cc1O)c1ccc(O)cc1O
REMARK SMILES IDX 2 1 1 2 3 3 5 4 4 5 6 6 8 7 9 8 7 9 10 11 11 13 17 14 12 15
REMARK SMILES IDX 16 16 13 17 14 18 18 19 15 21
REMARK H PARENT 7 10 10 12 18 20 15 22
ROOT
ATOM      1  C   UNL     1      -0.119  -0.390  -0.985  1.00  0.00     0.200 C 
ATOM      2  O   UNL     1      -0.274  -0.830  -2.127  1.00  0.00    -0.288 OA
ENDROOT
BRANCH   1   3
ATOM      3  C   UNL     1       1.254  -0.337  -0.428  1.00  0.00     0.065 A 
ATOM      4  C   UNL     1       2.798  -0.477   1.440  1.00  0.00     0.047 A 
ATOM      5  C   UNL     1       1.494  -0.539   0.939  1.00  0.00     0.020 A 
ATOM      6  C   UNL     1       3.856  -0.226   0.572  1.00  0.00     0.119 A 
ATOM      7  C   UNL     1       3.637  -0.051  -0.790  1.00  0.00     0.093 A 
ATOM      8  C   UNL     1       2.340  -0.124  -1.290  1.00  0.00     0.130 A 
BRANCH   6   9
ATOM      9  O   UNL     1       5.141  -0.154   1.022  1.00  0.00    -0.508 OA
ATOM     10  H   UNL     1       5.153  -0.313   1.980  1.00  0.00     0.293 HD
ENDBRANCH   6   9
BRANCH   8  11
ATOM     11  O   UNL     1       2.194   0.020  -2.644  1.00  0.00    -0.507 OA
ATOM     12  H   UNL     1       1.292  -0.286  -2.884  1.00  0.00     0.293 HD
ENDBRANCH   8  11
ENDBRANCH   1   3
BRANCH   1  13
ATOM     13  C   UNL     1      -1.317   0.058  -0.234  1.00  0.00     0.065 A 
ATOM     14  C   UNL     1      -2.552  -0.564  -0.473  1.00  0.00     0.130 A 
ATOM     15  C   UNL     1      -1.250   1.119   0.679  1.00  0.00     0.020 A 
ATOM     16  C   UNL     1      -3.693  -0.180   0.230  1.00  0.00     0.093 A 
ATOM     17  C   UNL     1      -2.394   1.509   1.379  1.00  0.00     0.047 A 
ATOM     18  C   UNL     1      -3.601   0.854   1.155  1.00  0.00     0.119 A 
BRANCH  14  19
ATOM     19  O   UNL     1      -2.714  -1.565  -1.394  1.00  0.00    -0.507 OA
ATOM     20  H   UNL     1      -1.915  -1.577  -1.967  1.00  0.00     0.293 HD
ENDBRANCH  14  19
BRANCH  18  21
ATOM     21  O   UNL     1      -4.687   1.270   1.866  1.00  0.00    -0.508 OA
ATOM     22  H   UNL     1      -5.459   0.746   1.591  1.00  0.00     0.293 HD
ENDBRANCH  18  21
ENDBRANCH   1  13
TORSDOF 6
