REMARK SMILES CCCCOC(=O)c1ccccc1C(=O)OCc1ccccc1
REMARK SMILES IDX 6 1 7 2 5 3 4 4 3 5 2 6 1 7 8 8 9 9 13 10 10 11 12 12 11 13
REMARK SMILES IDX 14 14 15 15 16 16 17 17 18 18 19 19 23 20 20 21 22 22 21 23
REMARK H PARENT
ROOT
ATOM      1  C   UNL     1       1.206  -1.609   1.100  1.00  0.00     0.339 C 
ATOM      2  O   UNL     1       0.670  -1.363   2.166  1.00  0.00    -0.246 OA
ENDROOT
BRANCH   1   3
ATOM      3  O   UNL     1       2.348  -1.062   0.615  1.00  0.00    -0.462 OA
BRANCH   3   4
ATOM      4  C   UNL     1       2.961  -0.066   1.450  1.00  0.00     0.233 C 
BRANCH   4   5
ATOM      5  C   UNL     1       2.353   1.303   1.152  1.00  0.00     0.041 C 
BRANCH   5   6
ATOM      6  C   UNL     1       2.911   2.423   2.028  1.00  0.00     0.000 C 
ATOM      7  C   UNL     1       4.388   2.699   1.791  1.00  0.00     0.004 C 
ENDBRANCH   5   6
ENDBRANCH   4   5
ENDBRANCH   3   4
ENDBRANCH   1   3
BRANCH   1   8
ATOM      8  C   UNL     1       0.671  -2.561   0.105  1.00  0.00     0.074 A 
ATOM      9  C   UNL     1       1.539  -3.493  -0.487  1.00  0.00     0.016 A 
ATOM     10  C   UNL     1      -0.696  -2.598  -0.195  1.00  0.00     0.074 A 
ATOM     11  C   UNL     1       1.040  -4.457  -1.365  1.00  0.00     0.001 A 
ATOM     12  C   UNL     1      -1.192  -3.582  -1.063  1.00  0.00     0.016 A 
ATOM     13  C   UNL     1      -0.324  -4.506  -1.648  1.00  0.00     0.001 A 
BRANCH  10  14
ATOM     14  C   UNL     1      -1.667  -1.626   0.345  1.00  0.00     0.339 C 
ATOM     15  O   UNL     1      -2.771  -1.942   0.755  1.00  0.00    -0.246 OA
BRANCH  14  16
ATOM     16  O   UNL     1      -1.171  -0.378   0.191  1.00  0.00    -0.457 OA
BRANCH  16  17
ATOM     17  C   UNL     1      -2.020   0.683   0.641  1.00  0.00     0.269 C 
BRANCH  17  18
ATOM     18  C   UNL     1      -2.693   1.313  -0.550  1.00  0.00    -0.011 A 
ATOM     19  C   UNL     1      -2.026   2.279  -1.316  1.00  0.00     0.007 A 
ATOM     20  C   UNL     1      -3.979   0.909  -0.933  1.00  0.00     0.007 A 
ATOM     21  C   UNL     1      -2.643   2.846  -2.432  1.00  0.00     0.000 A 
ATOM     22  C   UNL     1      -4.595   1.478  -2.049  1.00  0.00     0.000 A 
ATOM     23  C   UNL     1      -3.928   2.447  -2.796  1.00  0.00     0.000 A 
ENDBRANCH  17  18
ENDBRANCH  16  17
ENDBRANCH  14  16
ENDBRANCH  10  14
ENDBRANCH   1   8
TORSDOF 9
