REMARK SMILES Oc1ccc(C(=C(Cl)Cl)c2ccc(O)cc2)cc1
REMARK SMILES IDX 6 1 10 2 11 3 12 4 13 5 16 6 15 7 14 8 7 10 8 11 9 12 5 13
REMARK SMILES IDX 4 14 17 15 3 16 18 17 2 18 1 19
REMARK H PARENT 14 9 1 20
ROOT
ATOM      1  C   UNL     1       0.242   0.918  -0.795  1.00  0.00     0.019 C 
ENDROOT
BRANCH   1   2
ATOM      2  C   UNL     1      -1.154   0.456  -0.596  1.00  0.00    -0.015 A 
ATOM      3  C   UNL     1      -1.604  -0.711  -1.228  1.00  0.00     0.012 A 
ATOM      4  C   UNL     1      -2.914  -1.152  -1.038  1.00  0.00     0.047 A 
ATOM      5  C   UNL     1      -3.772  -0.432  -0.214  1.00  0.00     0.115 A 
ATOM      6  C   UNL     1      -2.031   1.169   0.236  1.00  0.00     0.012 A 
ATOM      7  C   UNL     1      -3.342   0.726   0.426  1.00  0.00     0.047 A 
BRANCH   5   8
ATOM      8  O   UNL     1      -5.043  -0.900  -0.058  1.00  0.00    -0.508 OA
ATOM      9  H   UNL     1      -5.525  -0.299   0.533  1.00  0.00     0.293 HD
ENDBRANCH   5   8
ENDBRANCH   1   2
BRANCH   1  10
ATOM     10  C   UNL     1       0.506   1.922  -1.664  1.00  0.00     0.115 C 
ATOM     11  Cl  UNL     1       2.111   2.543  -1.934  1.00  0.00    -0.070 Cl
ATOM     12  Cl  UNL     1      -0.728   2.707  -2.610  1.00  0.00    -0.070 Cl
ENDBRANCH   1  10
BRANCH   1  13
ATOM     13  C   UNL     1       1.348   0.278  -0.039  1.00  0.00    -0.015 A 
ATOM     14  C   UNL     1       1.584   0.633   1.295  1.00  0.00     0.012 A 
ATOM     15  C   UNL     1       2.155  -0.697  -0.645  1.00  0.00     0.012 A 
ATOM     16  C   UNL     1       2.618   0.028   2.010  1.00  0.00     0.047 A 
ATOM     17  C   UNL     1       3.191  -1.301   0.072  1.00  0.00     0.047 A 
ATOM     18  C   UNL     1       3.413  -0.932   1.395  1.00  0.00     0.115 A 
BRANCH  18  19
ATOM     19  O   UNL     1       4.411  -1.496   2.131  1.00  0.00    -0.508 OA
ATOM     20  H   UNL     1       4.883  -2.138   1.576  1.00  0.00     0.293 HD
ENDBRANCH  18  19
ENDBRANCH   1  13
TORSDOF 5
