REMARK SMILES Oc1ccc(C(c2ccc(O)cc2)(C(F)(F)F)C(F)(F)F)cc1
REMARK SMILES IDX 6 1 7 2 8 3 9 4 10 5 13 6 12 7 11 8 5 10 4 11 22 12 3 13
REMARK SMILES IDX 23 14 2 15 1 16 14 18 15 19 16 20 17 21 18 22 19 23 20 24
REMARK SMILES IDX 21 25
REMARK H PARENT 11 9 1 17
ROOT
ATOM      1  C   UNL     1      -0.078  -1.123   0.376  1.00  0.00     0.211 C 
ENDROOT
BRANCH   1   2
ATOM      2  C   UNL     1      -1.303  -0.183   0.161  1.00  0.00    -0.019 A 
ATOM      3  C   UNL     1      -1.317   1.094   0.765  1.00  0.00     0.009 A 
ATOM      4  C   UNL     1      -2.394   1.969   0.598  1.00  0.00     0.046 A 
ATOM      5  C   UNL     1      -3.475   1.578  -0.177  1.00  0.00     0.115 A 
ATOM      6  C   UNL     1      -2.417  -0.546  -0.618  1.00  0.00     0.009 A 
ATOM      7  C   UNL     1      -3.494   0.331  -0.783  1.00  0.00     0.046 A 
BRANCH   5   8
ATOM      8  O   UNL     1      -4.548   2.396  -0.370  1.00  0.00    -0.508 OA
ATOM      9  H   UNL     1      -4.398   3.226   0.113  1.00  0.00     0.293 HD
ENDBRANCH   5   8
ENDBRANCH   1   2
BRANCH   1  10
ATOM     10  C   UNL     1       1.231  -0.380  -0.033  1.00  0.00    -0.019 A 
ATOM     11  C   UNL     1       1.332   0.190  -1.321  1.00  0.00     0.009 A 
ATOM     12  C   UNL     1       2.338  -0.247   0.826  1.00  0.00     0.009 A 
ATOM     13  C   UNL     1       2.486   0.864  -1.727  1.00  0.00     0.046 A 
ATOM     14  C   UNL     1       3.494   0.428   0.417  1.00  0.00     0.046 A 
ATOM     15  C   UNL     1       3.558   0.978  -0.856  1.00  0.00     0.115 A 
BRANCH  15  16
ATOM     16  O   UNL     1       4.665   1.642  -1.292  1.00  0.00    -0.508 OA
ATOM     17  H   UNL     1       5.338   1.621  -0.592  1.00  0.00     0.293 HD
ENDBRANCH  15  16
ENDBRANCH   1  10
BRANCH   1  18
ATOM     18  C   UNL     1      -0.111  -1.611   1.832  1.00  0.00     0.411 C 
ATOM     19  F   UNL     1      -1.283  -2.204   2.158  1.00  0.00    -0.169 F 
ATOM     20  F   UNL     1       0.867  -2.503   2.115  1.00  0.00    -0.169 F 
ATOM     21  F   UNL     1       0.052  -0.589   2.714  1.00  0.00    -0.169 F 
ENDBRANCH   1  18
BRANCH   1  22
ATOM     22  C   UNL     1      -0.134  -2.444  -0.406  1.00  0.00     0.411 C 
ATOM     23  F   UNL     1      -1.191  -3.217  -0.065  1.00  0.00    -0.169 F 
ATOM     24  F   UNL     1       0.974  -3.202  -0.223  1.00  0.00    -0.169 F 
ATOM     25  F   UNL     1      -0.233  -2.240  -1.745  1.00  0.00    -0.169 F 
ENDBRANCH   1  22
TORSDOF 6
