REMARK SMILES CC(C)(c1ccc(O)cc1)c1ccc(O)cc1
REMARK SMILES IDX 1 1 2 2 3 3 4 4 5 5 10 6 6 7 9 8 7 9 8 10 11 12 12 13 17 14
REMARK SMILES IDX 13 15 16 16 14 17 15 18
REMARK H PARENT 8 11 15 19
ROOT
ATOM      1  C   UNL     1      -0.176  -1.665  -1.747  1.00  0.00     0.021 C 
ATOM      2  C   UNL     1      -0.009  -1.101  -0.311  1.00  0.00     0.015 C 
ATOM      3  C   UNL     1       0.143  -2.336   0.616  1.00  0.00     0.021 C 
ENDROOT
BRANCH   2   4
ATOM      4  C   UNL     1       1.244  -0.191  -0.345  1.00  0.00    -0.038 A 
ATOM      5  C   UNL     1       2.456  -0.536   0.279  1.00  0.00     0.008 A 
ATOM      6  C   UNL     1       1.193   1.036  -1.040  1.00  0.00     0.008 A 
ATOM      7  C   UNL     1       3.569   0.310   0.216  1.00  0.00     0.046 A 
ATOM      8  C   UNL     1       2.303   1.881  -1.103  1.00  0.00     0.046 A 
ATOM      9  C   UNL     1       3.482   1.512  -0.474  1.00  0.00     0.115 A 
BRANCH   9  10
ATOM     10  O   UNL     1       4.543   2.364  -0.558  1.00  0.00    -0.508 OA
ATOM     11  H   UNL     1       5.286   1.980  -0.065  1.00  0.00     0.293 HD
ENDBRANCH   9  10
ENDBRANCH   2   4
BRANCH   2  12
ATOM     12  C   UNL     1      -1.248  -0.325   0.199  1.00  0.00    -0.038 A 
ATOM     13  C   UNL     1      -1.182   0.355   1.434  1.00  0.00     0.008 A 
ATOM     14  C   UNL     1      -2.462  -0.274  -0.508  1.00  0.00     0.008 A 
ATOM     15  C   UNL     1      -2.279   1.060   1.934  1.00  0.00     0.046 A 
ATOM     16  C   UNL     1      -3.563   0.432  -0.006  1.00  0.00     0.046 A 
ATOM     17  C   UNL     1      -3.461   1.093   1.211  1.00  0.00     0.115 A 
BRANCH  17  18
ATOM     18  O   UNL     1      -4.509   1.790   1.733  1.00  0.00    -0.508 OA
ATOM     19  H   UNL     1      -5.256   1.733   1.115  1.00  0.00     0.293 HD
ENDBRANCH  17  18
ENDBRANCH   2  12
TORSDOF 4
