REMARK SMILES CCCCOC(=O)c1ccc(O)cc1
REMARK SMILES IDX 5 1 4 2 3 3 2 4 1 5 6 6 7 7 8 8 9 9 14 10 10 11 13 12 11 13
REMARK SMILES IDX 12 14
REMARK H PARENT 12 15
ROOT
ATOM      1  O   UNL     1      -0.025  -1.041  -0.664  1.00  0.00    -0.462 OA
ENDROOT
BRANCH   1   2
ATOM      2  C   UNL     1      -1.080  -1.568  -1.482  1.00  0.00     0.233 C 
BRANCH   2   3
ATOM      3  C   UNL     1      -2.417  -0.908  -1.150  1.00  0.00     0.041 C 
BRANCH   3   4
ATOM      4  C   UNL     1      -2.818  -1.117   0.312  1.00  0.00     0.000 C 
ATOM      5  C   UNL     1      -4.170  -0.489   0.612  1.00  0.00     0.004 C 
ENDBRANCH   3   4
ENDBRANCH   2   3
ENDBRANCH   1   2
BRANCH   1   6
ATOM      6  C   UNL     1       0.558   0.098  -1.114  1.00  0.00     0.338 C 
ATOM      7  O   UNL     1       0.270   0.695  -2.138  1.00  0.00    -0.246 OA
BRANCH   6   8
ATOM      8  C   UNL     1       1.621   0.546  -0.173  1.00  0.00     0.060 A 
ATOM      9  C   UNL     1       1.919  -0.144   1.013  1.00  0.00     0.019 A 
ATOM     10  C   UNL     1       2.343   1.705  -0.493  1.00  0.00     0.019 A 
ATOM     11  C   UNL     1       2.926   0.319   1.865  1.00  0.00     0.047 A 
ATOM     12  C   UNL     1       3.349   2.166   0.359  1.00  0.00     0.047 A 
ATOM     13  C   UNL     1       3.632   1.470   1.529  1.00  0.00     0.115 A 
BRANCH  13  14
ATOM     14  O   UNL     1       4.621   1.956   2.331  1.00  0.00    -0.508 OA
ATOM     15  H   UNL     1       4.711   1.377   3.105  1.00  0.00     0.293 HD
ENDBRANCH  13  14
ENDBRANCH   6   8
ENDBRANCH   1   6
TORSDOF 6
