REMARK SMILES C[C@]12CC[C@@H]3c4ccc(O)cc4CC[C@H]3[C@@H]1CC[C@@H]2O
REMARK SMILES IDX 1 1 2 2 3 3 4 4 5 5 15 6 16 7 17 8 18 9 19 10 14 11 13 12
REMARK SMILES IDX 12 13 6 14 7 15 8 16 9 17 11 18 20 19 10 21
REMARK H PARENT 20 20 10 22
ROOT
ATOM      1  C   UNL     1      -2.081   1.115  -1.647  1.00  0.00     0.014 C 
ATOM      2  C   UNL     1      -2.227   0.650  -0.176  1.00  0.00    -0.003 C 
ATOM      3  C   UNL     1      -1.624   1.712   0.752  1.00  0.00     0.010 C 
ATOM      4  C   UNL     1      -0.089   1.778   0.627  1.00  0.00     0.009 C 
ATOM      5  C   UNL     1       0.607   0.399   0.787  1.00  0.00     0.023 C 
ATOM      6  C   UNL     1      -0.050  -0.676  -0.131  1.00  0.00     0.000 C 
ATOM      7  C   UNL     1      -1.554  -0.701   0.142  1.00  0.00     0.001 C 
ATOM      8  C   UNL     1      -2.430  -1.716  -0.587  1.00  0.00     0.007 C 
ATOM      9  C   UNL     1      -3.852  -1.136  -0.468  1.00  0.00     0.032 C 
ATOM     10  C   UNL     1      -3.690   0.274   0.135  1.00  0.00     0.120 C 
ATOM     11  C   UNL     1       0.618  -2.027   0.131  1.00  0.00     0.009 C 
ATOM     12  C   UNL     1       2.081  -1.974  -0.297  1.00  0.00     0.036 C 
ATOM     13  C   UNL     1       2.808  -0.726   0.146  1.00  0.00    -0.041 A 
ATOM     14  C   UNL     1       2.125   0.417   0.618  1.00  0.00    -0.041 A 
ATOM     15  C   UNL     1       2.886   1.533   1.009  1.00  0.00     0.008 A 
ATOM     16  C   UNL     1       4.278   1.537   0.895  1.00  0.00     0.046 A 
ATOM     17  C   UNL     1       4.929   0.419   0.402  1.00  0.00     0.115 A 
ATOM     18  C   UNL     1       4.210  -0.709   0.027  1.00  0.00     0.050 A 
ENDROOT
BRANCH  10  19
ATOM     19  O   UNL     1      -4.643   1.189  -0.371  1.00  0.00    -0.393 OA
ATOM     20  H   UNL     1      -4.666   1.110  -1.339  1.00  0.00     0.210 HD
ENDBRANCH  10  19
BRANCH  17  21
ATOM     21  O   UNL     1       6.288   0.464   0.304  1.00  0.00    -0.508 OA
ATOM     22  H   UNL     1       6.599  -0.384  -0.053  1.00  0.00     0.293 HD
ENDBRANCH  17  21
TORSDOF 2
