REMARK SMILES O=c1c(-c2ccc(O)cc2)coc2cc(O)cc(O)c12
REMARK SMILES IDX 3 1 11 2 12 3 13 4 14 5 15 6 17 7 18 8 20 9 2 10 1 11 4 12
REMARK SMILES IDX 5 13 6 14 7 15 10 16 9 17 8 18 19 20 16 22
REMARK H PARENT 8 19 19 21 16 23
ROOT
ATOM      1  C   UNL     1       0.494   0.321  -0.363  1.00  0.00     0.065 A 
ATOM      2  C   UNL     1      -0.141   0.949  -1.362  1.00  0.00     0.208 A 
ATOM      3  O   UNL     1      -1.494   1.112  -1.498  1.00  0.00    -0.463 OA
ATOM      4  C   UNL     1      -2.305   0.567  -0.533  1.00  0.00     0.145 A 
ATOM      5  C   UNL     1      -3.678   0.751  -0.723  1.00  0.00     0.094 A 
ATOM      6  C   UNL     1      -4.567   0.229   0.206  1.00  0.00     0.123 A 
ATOM      7  C   UNL     1      -4.108  -0.471   1.316  1.00  0.00     0.093 A 
ATOM      8  C   UNL     1      -2.734  -0.652   1.501  1.00  0.00     0.134 A 
ATOM      9  C   UNL     1      -1.817  -0.132   0.576  1.00  0.00     0.107 A 
ATOM     10  C   UNL     1      -0.344  -0.286   0.714  1.00  0.00     0.204 A 
ATOM     11  O   UNL     1       0.176  -0.872   1.655  1.00  0.00    -0.288 OA
ENDROOT
BRANCH   1  12
ATOM     12  C   UNL     1       1.966   0.219  -0.371  1.00  0.00    -0.011 A 
ATOM     13  C   UNL     1       2.769   1.363  -0.512  1.00  0.00     0.013 A 
ATOM     14  C   UNL     1       4.164   1.260  -0.534  1.00  0.00     0.047 A 
ATOM     15  C   UNL     1       4.759   0.009  -0.414  1.00  0.00     0.115 A 
ATOM     16  C   UNL     1       2.592  -1.030  -0.243  1.00  0.00     0.013 A 
ATOM     17  C   UNL     1       3.985  -1.134  -0.268  1.00  0.00     0.047 A 
BRANCH  15  18
ATOM     18  O   UNL     1       6.114  -0.138  -0.431  1.00  0.00    -0.508 OA
ATOM     19  H   UNL     1       6.521   0.742  -0.487  1.00  0.00     0.293 HD
ENDBRANCH  15  18
ENDBRANCH   1  12
BRANCH   8  20
ATOM     20  O   UNL     1      -2.312  -1.346   2.599  1.00  0.00    -0.507 OA
ATOM     21  H   UNL     1      -3.070  -1.625   3.136  1.00  0.00     0.293 HD
ENDBRANCH   8  20
BRANCH   6  22
ATOM     22  O   UNL     1      -5.915   0.380   0.067  1.00  0.00    -0.508 OA
ATOM     23  H   UNL     1      -6.098   0.881  -0.746  1.00  0.00     0.293 HD
ENDBRANCH   6  22
TORSDOF 4
