REMARK SMILES Clc1ccc(C(c2ccc(Cl)cc2)C(Cl)(Cl)Cl)cc1
REMARK SMILES IDX 6 1 7 2 8 3 9 4 10 5 13 6 12 7 11 8 5 9 4 10 18 11 3 12
REMARK SMILES IDX 19 13 2 14 1 15 14 16 15 17 16 18 17 19
REMARK H PARENT
ROOT
ATOM      1  C   UNL     1       0.119  -0.568   1.065  1.00  0.00     0.101 C 
ENDROOT
BRANCH   1   2
ATOM      2  C   UNL     1      -1.211  -0.152   0.411  1.00  0.00    -0.036 A 
ATOM      3  C   UNL     1      -1.494  -0.432  -0.936  1.00  0.00     0.006 A 
ATOM      4  C   UNL     1      -2.710  -0.044  -1.507  1.00  0.00     0.021 A 
ATOM      5  C   UNL     1      -3.654   0.630  -0.738  1.00  0.00     0.041 A 
ATOM      6  C   UNL     1      -2.177   0.536   1.169  1.00  0.00     0.006 A 
ATOM      7  C   UNL     1      -3.392   0.922   0.597  1.00  0.00     0.021 A 
ATOM      8  Cl  UNL     1      -5.149   1.107  -1.442  1.00  0.00    -0.084 Cl
ENDBRANCH   1   2
BRANCH   1   9
ATOM      9  C   UNL     1       1.316  -0.038   0.252  1.00  0.00    -0.036 A 
ATOM     10  C   UNL     1       1.652   1.327   0.376  1.00  0.00     0.006 A 
ATOM     11  C   UNL     1       2.071  -0.821  -0.635  1.00  0.00     0.006 A 
ATOM     12  C   UNL     1       2.714   1.881  -0.344  1.00  0.00     0.021 A 
ATOM     13  C   UNL     1       3.136  -0.266  -1.355  1.00  0.00     0.021 A 
ATOM     14  C   UNL     1       3.454   1.081  -1.205  1.00  0.00     0.041 A 
ATOM     15  Cl  UNL     1       4.761   1.757  -2.095  1.00  0.00    -0.084 Cl
ENDBRANCH   1   9
BRANCH   1  16
ATOM     16  C   UNL     1       0.144  -2.055   1.578  1.00  0.00     0.201 C 
ATOM     17  Cl  UNL     1      -1.114  -2.303   2.866  1.00  0.00    -0.083 Cl
ATOM     18  Cl  UNL     1      -0.170  -3.293   0.312  1.00  0.00    -0.083 Cl
ATOM     19  Cl  UNL     1       1.724  -2.448   2.365  1.00  0.00    -0.083 Cl
ENDBRANCH   1  16
TORSDOF 3
