REMARK SMILES ClC(Cl)=C(c1ccc(Cl)cc1)c1ccc(Cl)cc1
REMARK SMILES IDX 4 1 12 2 13 3 14 4 15 5 18 6 17 7 16 8 2 9 1 10 3 11 5 12
REMARK SMILES IDX 6 13 11 14 7 15 10 16 8 17 9 18
REMARK H PARENT
ROOT
ATOM      1  C   UNL     1      -0.121  -1.045  -0.162  1.00  0.00     0.019 C 
ENDROOT
BRANCH   1   2
ATOM      2  C   UNL     1       1.220  -0.418  -0.277  1.00  0.00    -0.015 A 
ATOM      3  C   UNL     1       1.565   0.291  -1.435  1.00  0.00     0.010 A 
ATOM      4  C   UNL     1       2.822   0.892  -1.545  1.00  0.00     0.021 A 
ATOM      5  C   UNL     1       3.733   0.789  -0.495  1.00  0.00     0.041 A 
ATOM      6  C   UNL     1       2.143  -0.510   0.775  1.00  0.00     0.010 A 
ATOM      7  C   UNL     1       3.400   0.091   0.664  1.00  0.00     0.021 A 
ATOM      8  Cl  UNL     1       5.280   1.530  -0.631  1.00  0.00    -0.084 Cl
ENDBRANCH   1   2
BRANCH   1   9
ATOM      9  C   UNL     1      -0.265  -2.378  -0.355  1.00  0.00     0.115 C 
ATOM     10  Cl  UNL     1      -1.796  -3.196  -0.205  1.00  0.00    -0.070 Cl
ATOM     11  Cl  UNL     1       1.062  -3.423  -0.776  1.00  0.00    -0.070 Cl
ENDBRANCH   1   9
BRANCH   1  12
ATOM     12  C   UNL     1      -1.302  -0.208   0.166  1.00  0.00    -0.015 A 
ATOM     13  C   UNL     1      -1.526   0.202   1.488  1.00  0.00     0.010 A 
ATOM     14  C   UNL     1      -2.192   0.195  -0.840  1.00  0.00     0.010 A 
ATOM     15  C   UNL     1      -2.631   0.998   1.800  1.00  0.00     0.021 A 
ATOM     16  C   UNL     1      -3.297   0.991  -0.526  1.00  0.00     0.021 A 
ATOM     17  C   UNL     1      -3.511   1.388   0.792  1.00  0.00     0.041 A 
ATOM     18  Cl  UNL     1      -4.871   2.369   1.179  1.00  0.00    -0.084 Cl
ENDBRANCH   1  12
TORSDOF 3
