REMARK SMILES CCCOC(=O)c1ccc(O)cc1
REMARK SMILES IDX 4 1 3 2 2 3 1 4 5 5 6 6 7 7 8 8 13 9 9 10 12 11 10 12 11 13
REMARK H PARENT 11 14
ROOT
ATOM      1  O   UNL     1       0.817  -0.841  -0.197  1.00  0.00    -0.462 OA
ENDROOT
BRANCH   1   2
ATOM      2  C   UNL     1       2.184  -1.179   0.088  1.00  0.00     0.233 C 
BRANCH   2   3
ATOM      3  C   UNL     1       3.093  -0.003  -0.248  1.00  0.00     0.038 C 
ATOM      4  C   UNL     1       4.555  -0.338  -0.014  1.00  0.00     0.007 C 
ENDBRANCH   2   3
ENDBRANCH   1   2
BRANCH   1   5
ATOM      5  C   UNL     1       0.143  -0.218   0.801  1.00  0.00     0.338 C 
ATOM      6  O   UNL     1       0.594   0.077   1.897  1.00  0.00    -0.246 OA
BRANCH   5   7
ATOM      7  C   UNL     1      -1.256   0.077   0.385  1.00  0.00     0.060 A 
ATOM      8  C   UNL     1      -2.097   0.723   1.304  1.00  0.00     0.019 A 
ATOM      9  C   UNL     1      -1.753  -0.265  -0.880  1.00  0.00     0.019 A 
ATOM     10  C   UNL     1      -3.419   1.024   0.965  1.00  0.00     0.047 A 
ATOM     11  C   UNL     1      -3.075   0.037  -1.218  1.00  0.00     0.047 A 
ATOM     12  C   UNL     1      -3.895   0.677  -0.295  1.00  0.00     0.115 A 
BRANCH  12  13
ATOM     13  O   UNL     1      -5.177   0.950  -0.670  1.00  0.00    -0.508 OA
ATOM     14  H   UNL     1      -5.630   1.394   0.066  1.00  0.00     0.293 HD
ENDBRANCH  12  13
ENDBRANCH   5   7
ENDBRANCH   1   5
TORSDOF 5
