BEGIN_RES MET A 343
REMARK INDEX MAP 3 1 15 2 18 3 21 4 22 5
ROOT
ATOM      1  CA  MET A 343      19.768   3.508   9.792  1.00  0.00     0.172 C 
ENDROOT
BRANCH   1   2
ATOM      2  CB  MET A 343      20.802   2.397  10.056  1.00  0.00     0.046 C 
BRANCH   2   3
ATOM      3  CG  MET A 343      21.548   2.515  11.399  1.00  0.00     0.072 C 
BRANCH   3   4
ATOM      4  SD  MET A 343      22.300   4.145  11.723  1.00  0.00    -0.165 SA
ATOM      5  CE  MET A 343      23.470   4.136  10.335  1.00  0.00     0.085 C 
ENDBRANCH   3   4
ENDBRANCH   2   3
ENDBRANCH   1   2
END_RES MET A 343
BEGIN_RES LEU A 346
REMARK INDEX MAP 3 1 15 2 18 3 20 4 21 5
ROOT
ATOM      6  CA  LEU A 346      19.164   8.233   7.874  1.00  0.00     0.172 C 
ENDROOT
BRANCH   6   7
ATOM      7  CB  LEU A 346      19.753   8.120   9.293  1.00  0.00     0.038 C 
BRANCH   7   8
ATOM      8  CG  LEU A 346      18.742   8.324  10.446  1.00  0.00    -0.015 C 
ATOM      9 CD1  LEU A 346      19.463   8.192  11.795  1.00  0.00     0.007 C 
ATOM     10 CD2  LEU A 346      17.995   9.663  10.365  1.00  0.00     0.007 C 
ENDBRANCH   7   8
ENDBRANCH   6   7
END_RES LEU A 346
BEGIN_RES THR A 347
REMARK INDEX MAP 3 1 15 2 17 3 18 4 22 5
ROOT
ATOM     11  CA  THR A 347      21.753   6.918   5.357  1.00  0.00     0.199 C 
ENDROOT
BRANCH  11  12
ATOM     12  CB  THR A 347      22.485   5.590   5.321  1.00  0.00     0.143 C 
ATOM     13 CG2  THR A 347      23.234   5.425   6.650  1.00  0.00     0.041 C 
BRANCH  12  14
ATOM     14 OG1  THR A 347      21.595   4.496   5.172  1.00  0.00    -0.389 OA
ATOM     15 HG1  THR A 347      21.326   4.165   6.066  1.00  0.00     0.211 HD
ENDBRANCH  12  14
ENDBRANCH  11  12
END_RES THR A 347
BEGIN_RES MET A 349
REMARK INDEX MAP 3 1 15 2 18 3 21 4 22 5
ROOT
ATOM     16  CA  MET A 349      18.707  10.875   3.382  1.00  0.00     0.172 C 
ENDROOT
BRANCH  16  17
ATOM     17  CB  MET A 349      18.087  11.285   4.727  1.00  0.00     0.046 C 
BRANCH  17  18
ATOM     18  CG  MET A 349      17.931  12.798   4.939  1.00  0.00     0.072 C 
BRANCH  18  19
ATOM     19  SD  MET A 349      17.793  13.258   6.689  1.00  0.00    -0.165 SA
ATOM     20  CE  MET A 349      19.546  12.900   7.020  1.00  0.00     0.085 C 
ENDBRANCH  18  19
ENDBRANCH  17  18
ENDBRANCH  16  17
END_RES MET A 349
BEGIN_RES GLU A 353
REMARK INDEX MAP 3 1 15 2 18 3 21 4 22 5 23 6
ROOT
ATOM     21  CA  GLU A 353      21.964  15.329   0.710  1.00  0.00     0.171 C 
ENDROOT
BRANCH  21  22
ATOM     22  CB  GLU A 353      21.983  15.523   2.245  1.00  0.00     0.041 C 
BRANCH  22  23
ATOM     23  CG  GLU A 353      20.603  15.792   2.898  1.00  0.00     0.055 C 
BRANCH  23  24
ATOM     24  CD  GLU A 353      20.720  16.257   4.358  1.00  0.00     0.041 C 
ATOM     25 OE1  GLU A 353      20.798  17.492   4.605  1.00  0.00    -0.548 OA
ATOM     26 OE2  GLU A 353      20.715  15.389   5.266  1.00  0.00    -0.549 OA
ENDBRANCH  23  24
ENDBRANCH  22  23
ENDBRANCH  21  22
END_RES GLU A 353
BEGIN_RES LEU A 387
REMARK INDEX MAP 3 1 15 2 18 3 20 4 21 5
ROOT
ATOM     27  CA  LEU A 387      25.416  17.363   7.332  1.00  0.00     0.172 C 
ENDROOT
BRANCH  27  28
ATOM     28  CB  LEU A 387      25.429  15.820   7.153  1.00  0.00     0.038 C 
BRANCH  28  29
ATOM     29  CG  LEU A 387      25.585  15.286   5.716  1.00  0.00    -0.015 C 
ATOM     30 CD1  LEU A 387      25.571  13.750   5.729  1.00  0.00     0.007 C 
ATOM     31 CD2  LEU A 387      24.484  15.791   4.778  1.00  0.00     0.007 C 
ENDBRANCH  28  29
ENDBRANCH  27  28
END_RES LEU A 387
BEGIN_RES MET A 388
REMARK INDEX MAP 3 1 15 2 18 3 21 4 22 5
ROOT
ATOM     32  CA  MET A 388      25.538  17.745  11.133  1.00  0.00     0.172 C 
ENDROOT
BRANCH  32  33
ATOM     33  CB  MET A 388      26.678  17.258  12.045  1.00  0.00     0.046 C 
BRANCH  33  34
ATOM     34  CG  MET A 388      26.767  15.725  12.144  1.00  0.00     0.072 C 
BRANCH  34  35
ATOM     35  SD  MET A 388      28.151  15.175  13.177  1.00  0.00    -0.165 SA
ATOM     36  CE  MET A 388      27.566  13.468  13.390  1.00  0.00     0.085 C 
ENDBRANCH  34  35
ENDBRANCH  33  34
ENDBRANCH  32  33
END_RES MET A 388
BEGIN_RES LEU A 391
REMARK INDEX MAP 3 1 15 2 18 3 20 4 21 5
ROOT
ATOM     37  CA  LEU A 391      20.799  19.144  11.067  1.00  0.00     0.172 C 
ENDROOT
BRANCH  37  38
ATOM     38  CB  LEU A 391      21.321  17.741  11.460  1.00  0.00     0.038 C 
BRANCH  38  39
ATOM     39  CG  LEU A 391      20.486  16.976  12.505  1.00  0.00    -0.015 C 
ATOM     40 CD1  LEU A 391      19.100  16.632  11.963  1.00  0.00     0.007 C 
ATOM     41 CD2  LEU A 391      21.220  15.705  12.945  1.00  0.00     0.007 C 
ENDBRANCH  38  39
ENDBRANCH  37  38
END_RES LEU A 391
BEGIN_RES ARG A 394
REMARK INDEX MAP 3 1 15 2 18 3 21 4 24 5 25 6 26 7 28 8 31 9 32 10 27 11 29 12
REMARK INDEX MAP 30 13
ROOT
ATOM     42  CA  ARG A 394      17.108  22.746  11.431  1.00  0.00     0.171 C 
ENDROOT
BRANCH  42  43
ATOM     43  CB  ARG A 394      16.924  21.513  10.511  1.00  0.00     0.038 C 
BRANCH  43  44
ATOM     44  CG  ARG A 394      17.442  21.707   9.075  1.00  0.00     0.040 C 
BRANCH  44  45
ATOM     45  CD  ARG A 394      17.007  20.619   8.093  1.00  0.00     0.197 C 
BRANCH  45  46
ATOM     46  NE  ARG A 394      17.656  19.317   8.498  1.00  0.00    -0.278 N 
ATOM     47  HE  ARG A 394      17.180  18.751   9.215  1.00  0.00     0.260 HD
ATOM     48  CZ  ARG A 394      18.802  18.842   7.996  1.00  0.00     0.339 C 
ATOM     49 NH2  ARG A 394      19.103  17.570   8.140  1.00  0.00    -0.290 N 
ATOM     50 HH22 ARG A 394      19.985  17.203   7.754  1.00  0.00     0.256 HD
ATOM     51 HH21 ARG A 394      18.457  16.941   8.638  1.00  0.00     0.256 HD
BRANCH  48  52
ATOM     52 NH1  ARG A 394      19.661  19.585   7.310  1.00  0.00    -0.290 N 
ATOM     53 HH12 ARG A 394      20.529  19.166   6.947  1.00  0.00     0.256 HD
ATOM     54 HH11 ARG A 394      19.460  20.581   7.141  1.00  0.00     0.256 HD
ENDBRANCH  48  52
ENDBRANCH  45  46
ENDBRANCH  44  45
ENDBRANCH  43  44
ENDBRANCH  42  43
END_RES ARG A 394
BEGIN_RES PHE A 404
REMARK INDEX MAP 3 1 15 2 18 3 19 4 20 5 22 6 23 7 26 8
ROOT
ATOM     55  CA  PHE A 404      16.417  15.273  10.010  1.00  0.00     0.175 C 
ENDROOT
BRANCH  55  56
ATOM     56  CB  PHE A 404      16.419  13.737  10.151  1.00  0.00     0.070 C 
BRANCH  56  57
ATOM     57  CG  PHE A 404      17.397  13.320  11.211  1.00  0.00    -0.045 A 
ATOM     58 CD1  PHE A 404      18.743  13.201  10.849  1.00  0.00     0.004 A 
ATOM     59 CD2  PHE A 404      17.028  13.022  12.535  1.00  0.00     0.004 A 
ATOM     60 CE1  PHE A 404      19.698  12.751  11.761  1.00  0.00     0.000 A 
ATOM     61 CE2  PHE A 404      17.990  12.600  13.462  1.00  0.00     0.000 A 
ATOM     62  CZ  PHE A 404      19.321  12.454  13.071  1.00  0.00     0.000 A 
ENDBRANCH  56  57
ENDBRANCH  55  56
END_RES PHE A 404
BEGIN_RES MET A 421
REMARK INDEX MAP 3 1 15 2 18 3 21 4 22 5
ROOT
ATOM     63  CA  MET A 421      23.118   6.329  18.396  1.00  0.00     0.172 C 
ENDROOT
BRANCH  63  64
ATOM     64  CB  MET A 421      21.936   5.903  17.517  1.00  0.00     0.046 C 
BRANCH  64  65
ATOM     65  CG  MET A 421      21.181   6.994  16.728  1.00  0.00     0.072 C 
BRANCH  65  66
ATOM     66  SD  MET A 421      21.566   7.083  14.950  1.00  0.00    -0.165 SA
ATOM     67  CE  MET A 421      22.914   8.282  15.123  1.00  0.00     0.085 C 
ENDBRANCH  65  66
ENDBRANCH  64  65
ENDBRANCH  63  64
END_RES MET A 421
BEGIN_RES ILE A 424
REMARK INDEX MAP 3 1 15 2 17 3 18 4 24 5
ROOT
ATOM     68  CA  ILE A 424      25.520  11.012  19.149  1.00  0.00     0.174 C 
ENDROOT
BRANCH  68  69
ATOM     69  CB  ILE A 424      25.743  10.308  17.817  1.00  0.00     0.018 C 
ATOM     70 CG2  ILE A 424      25.789  11.315  16.642  1.00  0.00     0.010 C 
BRANCH  69  71
ATOM     71 CG1  ILE A 424      27.053   9.489  17.874  1.00  0.00     0.002 C 
ATOM     72 CD1  ILE A 424      27.163   8.451  16.758  1.00  0.00     0.004 C 
ENDBRANCH  69  71
ENDBRANCH  68  69
END_RES ILE A 424
BEGIN_RES PHE A 425
REMARK INDEX MAP 3 1 15 2 18 3 19 4 20 5 22 6 23 7 26 8
ROOT
ATOM     73  CA  PHE A 425      21.932  12.364  19.360  1.00  0.00     0.175 C 
ENDROOT
BRANCH  73  74
ATOM     74  CB  PHE A 425      20.636  11.531  19.563  1.00  0.00     0.070 C 
BRANCH  74  75
ATOM     75  CG  PHE A 425      19.951  11.061  18.299  1.00  0.00    -0.045 A 
ATOM     76 CD1  PHE A 425      20.625  10.749  17.106  1.00  0.00     0.004 A 
ATOM     77 CD2  PHE A 425      18.554  10.910  18.326  1.00  0.00     0.004 A 
ATOM     78 CE1  PHE A 425      19.918  10.305  15.978  1.00  0.00     0.000 A 
ATOM     79 CE2  PHE A 425      17.849  10.456  17.208  1.00  0.00     0.000 A 
ATOM     80  CZ  PHE A 425      18.531  10.152  16.030  1.00  0.00     0.000 A 
ENDBRANCH  74  75
ENDBRANCH  73  74
END_RES PHE A 425
BEGIN_RES HIS A 524
REMARK INDEX MAP 3 1 15 2 18 3 19 4 20 5 21 6 22 7 25 8
ROOT
ATOM     81  CA  HIS A 524      29.384   4.695  14.351  1.00  0.00     0.177 C 
ENDROOT
BRANCH  81  82
ATOM     82  CB  HIS A 524      28.362   5.700  14.929  1.00  0.00     0.093 C 
BRANCH  82  83
ATOM     83  CG  HIS A 524      26.988   5.151  15.166  1.00  0.00     0.061 A 
ATOM     84 ND1  HIS A 524      26.033   5.210  14.174  1.00  0.00    -0.242 NA
ATOM     85 CD2  HIS A 524      26.523   4.448  16.232  1.00  0.00     0.107 A 
ATOM     86 CE1  HIS A 524      25.002   4.534  14.652  1.00  0.00     0.196 A 
ATOM     87 NE2  HIS A 524      25.254   4.054  15.887  1.00  0.00    -0.350 N 
ATOM     88 HE2  HIS A 524      24.612   3.494  16.466  1.00  0.00     0.167 HD
ENDBRANCH  82  83
ENDBRANCH  81  82
END_RES HIS A 524
BEGIN_RES LEU A 525
REMARK INDEX MAP 3 1 15 2 18 3 20 4 21 5
ROOT
ATOM     89  CA  LEU A 525      28.587   4.553  10.595  1.00  0.00     0.172 C 
ENDROOT
BRANCH  89  90
ATOM     90  CB  LEU A 525      28.633   5.729   9.592  1.00  0.00     0.038 C 
BRANCH  90  91
ATOM     91  CG  LEU A 525      28.101   5.402   8.176  1.00  0.00    -0.015 C 
ATOM     92 CD1  LEU A 525      26.625   4.977   8.171  1.00  0.00     0.007 C 
ATOM     93 CD2  LEU A 525      28.288   6.577   7.209  1.00  0.00     0.007 C 
ENDBRANCH  90  91
ENDBRANCH  89  90
END_RES LEU A 525
