BEGIN_RES MET A 343
REMARK INDEX MAP 3 1 15 2 18 3 21 4 22 5
ROOT
ATOM      1  CA  MET A 343      19.773   3.509   9.792  1.00  0.00     0.172 C 
ENDROOT
BRANCH   1   2
ATOM      2  CB  MET A 343      20.807   2.398  10.056  1.00  0.00     0.046 C 
BRANCH   2   3
ATOM      3  CG  MET A 343      21.553   2.516  11.399  1.00  0.00     0.072 C 
BRANCH   3   4
ATOM      4  SD  MET A 343      22.305   4.146  11.723  1.00  0.00    -0.165 SA
ATOM      5  CE  MET A 343      23.475   4.137  10.335  1.00  0.00     0.085 C 
ENDBRANCH   3   4
ENDBRANCH   2   3
ENDBRANCH   1   2
END_RES MET A 343
BEGIN_RES LEU A 346
REMARK INDEX MAP 3 1 15 2 18 3 20 4 21 5
ROOT
ATOM      6  CA  LEU A 346      19.169   8.234   7.874  1.00  0.00     0.172 C 
ENDROOT
BRANCH   6   7
ATOM      7  CB  LEU A 346      19.758   8.121   9.293  1.00  0.00     0.038 C 
BRANCH   7   8
ATOM      8  CG  LEU A 346      18.747   8.325  10.446  1.00  0.00    -0.015 C 
ATOM      9 CD1  LEU A 346      19.468   8.193  11.795  1.00  0.00     0.007 C 
ATOM     10 CD2  LEU A 346      18.000   9.664  10.365  1.00  0.00     0.007 C 
ENDBRANCH   7   8
ENDBRANCH   6   7
END_RES LEU A 346
BEGIN_RES THR A 347
REMARK INDEX MAP 3 1 15 2 17 3 18 4 22 5
ROOT
ATOM     11  CA  THR A 347      21.758   6.919   5.357  1.00  0.00     0.199 C 
ENDROOT
BRANCH  11  12
ATOM     12  CB  THR A 347      22.490   5.591   5.321  1.00  0.00     0.143 C 
ATOM     13 CG2  THR A 347      23.239   5.426   6.650  1.00  0.00     0.041 C 
BRANCH  12  14
ATOM     14 OG1  THR A 347      21.600   4.497   5.172  1.00  0.00    -0.389 OA
ATOM     15 HG1  THR A 347      21.331   4.166   6.066  1.00  0.00     0.211 HD
ENDBRANCH  12  14
ENDBRANCH  11  12
END_RES THR A 347
BEGIN_RES MET A 349
REMARK INDEX MAP 3 1 15 2 18 3 21 4 22 5
ROOT
ATOM     16  CA  MET A 349      18.711  10.875   3.381  1.00  0.00     0.172 C 
ENDROOT
BRANCH  16  17
ATOM     17  CB  MET A 349      18.091  11.285   4.726  1.00  0.00     0.046 C 
BRANCH  17  18
ATOM     18  CG  MET A 349      17.935  12.798   4.938  1.00  0.00     0.072 C 
BRANCH  18  19
ATOM     19  SD  MET A 349      17.797  13.258   6.688  1.00  0.00    -0.165 SA
ATOM     20  CE  MET A 349      19.550  12.901   7.019  1.00  0.00     0.085 C 
ENDBRANCH  18  19
ENDBRANCH  17  18
ENDBRANCH  16  17
END_RES MET A 349
BEGIN_RES GLU A 353
REMARK INDEX MAP 3 1 15 2 18 3 21 4 22 5 23 6
ROOT
ATOM     21  CA  GLU A 353      21.968  15.329   0.709  1.00  0.00     0.171 C 
ENDROOT
BRANCH  21  22
ATOM     22  CB  GLU A 353      21.987  15.523   2.244  1.00  0.00     0.041 C 
BRANCH  22  23
ATOM     23  CG  GLU A 353      20.607  15.792   2.897  1.00  0.00     0.055 C 
BRANCH  23  24
ATOM     24  CD  GLU A 353      20.724  16.258   4.357  1.00  0.00     0.041 C 
ATOM     25 OE1  GLU A 353      20.802  17.493   4.604  1.00  0.00    -0.548 OA
ATOM     26 OE2  GLU A 353      20.719  15.390   5.265  1.00  0.00    -0.549 OA
ENDBRANCH  23  24
ENDBRANCH  22  23
ENDBRANCH  21  22
END_RES GLU A 353
BEGIN_RES LEU A 387
REMARK INDEX MAP 3 1 15 2 18 3 20 4 21 5
ROOT
ATOM     27  CA  LEU A 387      25.420  17.364   7.330  1.00  0.00     0.172 C 
ENDROOT
BRANCH  27  28
ATOM     28  CB  LEU A 387      25.433  15.821   7.152  1.00  0.00     0.038 C 
BRANCH  28  29
ATOM     29  CG  LEU A 387      25.589  15.287   5.715  1.00  0.00    -0.015 C 
ATOM     30 CD1  LEU A 387      25.575  13.751   5.728  1.00  0.00     0.007 C 
ATOM     31 CD2  LEU A 387      24.488  15.792   4.777  1.00  0.00     0.007 C 
ENDBRANCH  28  29
ENDBRANCH  27  28
END_RES LEU A 387
BEGIN_RES MET A 388
REMARK INDEX MAP 3 1 15 2 18 3 21 4 22 5
ROOT
ATOM     32  CA  MET A 388      25.542  17.747  11.131  1.00  0.00     0.172 C 
ENDROOT
BRANCH  32  33
ATOM     33  CB  MET A 388      26.682  17.260  12.043  1.00  0.00     0.046 C 
BRANCH  33  34
ATOM     34  CG  MET A 388      26.771  15.727  12.143  1.00  0.00     0.072 C 
BRANCH  34  35
ATOM     35  SD  MET A 388      28.155  15.177  13.176  1.00  0.00    -0.165 SA
ATOM     36  CE  MET A 388      27.570  13.470  13.389  1.00  0.00     0.085 C 
ENDBRANCH  34  35
ENDBRANCH  33  34
ENDBRANCH  32  33
END_RES MET A 388
BEGIN_RES LEU A 391
REMARK INDEX MAP 3 1 15 2 18 3 20 4 21 5
ROOT
ATOM     37  CA  LEU A 391      20.803  19.145  11.066  1.00  0.00     0.172 C 
ENDROOT
BRANCH  37  38
ATOM     38  CB  LEU A 391      21.325  17.742  11.459  1.00  0.00     0.038 C 
BRANCH  38  39
ATOM     39  CG  LEU A 391      20.490  16.977  12.504  1.00  0.00    -0.015 C 
ATOM     40 CD1  LEU A 391      19.104  16.633  11.962  1.00  0.00     0.007 C 
ATOM     41 CD2  LEU A 391      21.224  15.706  12.944  1.00  0.00     0.007 C 
ENDBRANCH  38  39
ENDBRANCH  37  38
END_RES LEU A 391
BEGIN_RES ARG A 394
REMARK INDEX MAP 3 1 15 2 18 3 21 4 24 5 25 6 26 7 28 8 31 9 32 10 27 11 29 12
REMARK INDEX MAP 30 13
ROOT
ATOM     42  CA  ARG A 394      17.111  22.747  11.429  1.00  0.00     0.171 C 
ENDROOT
BRANCH  42  43
ATOM     43  CB  ARG A 394      16.927  21.514  10.509  1.00  0.00     0.038 C 
BRANCH  43  44
ATOM     44  CG  ARG A 394      17.445  21.708   9.073  1.00  0.00     0.040 C 
BRANCH  44  45
ATOM     45  CD  ARG A 394      17.010  20.620   8.092  1.00  0.00     0.197 C 
BRANCH  45  46
ATOM     46  NE  ARG A 394      17.660  19.318   8.497  1.00  0.00    -0.278 N 
ATOM     47  HE  ARG A 394      17.185  18.752   9.215  1.00  0.00     0.260 HD
ATOM     48  CZ  ARG A 394      18.806  18.843   7.995  1.00  0.00     0.339 C 
ATOM     49 NH2  ARG A 394      19.107  17.571   8.139  1.00  0.00    -0.290 N 
ATOM     50 HH22 ARG A 394      19.989  17.204   7.753  1.00  0.00     0.256 HD
ATOM     51 HH21 ARG A 394      18.461  16.942   8.637  1.00  0.00     0.256 HD
BRANCH  48  52
ATOM     52 NH1  ARG A 394      19.665  19.586   7.309  1.00  0.00    -0.290 N 
ATOM     53 HH12 ARG A 394      20.533  19.167   6.946  1.00  0.00     0.256 HD
ATOM     54 HH11 ARG A 394      19.464  20.582   7.140  1.00  0.00     0.256 HD
ENDBRANCH  48  52
ENDBRANCH  45  46
ENDBRANCH  44  45
ENDBRANCH  43  44
ENDBRANCH  42  43
END_RES ARG A 394
BEGIN_RES PHE A 404
REMARK INDEX MAP 3 1 15 2 18 3 19 4 20 5 22 6 23 7 26 8
ROOT
ATOM     55  CA  PHE A 404      16.421  15.274  10.009  1.00  0.00     0.175 C 
ENDROOT
BRANCH  55  56
ATOM     56  CB  PHE A 404      16.423  13.738  10.150  1.00  0.00     0.070 C 
BRANCH  56  57
ATOM     57  CG  PHE A 404      17.401  13.321  11.210  1.00  0.00    -0.045 A 
ATOM     58 CD1  PHE A 404      18.747  13.202  10.848  1.00  0.00     0.004 A 
ATOM     59 CD2  PHE A 404      17.032  13.023  12.534  1.00  0.00     0.004 A 
ATOM     60 CE1  PHE A 404      19.702  12.752  11.760  1.00  0.00     0.000 A 
ATOM     61 CE2  PHE A 404      17.995  12.601  13.461  1.00  0.00     0.000 A 
ATOM     62  CZ  PHE A 404      19.326  12.455  13.070  1.00  0.00     0.000 A 
ENDBRANCH  56  57
ENDBRANCH  55  56
END_RES PHE A 404
BEGIN_RES MET A 421
REMARK INDEX MAP 3 1 15 2 18 3 21 4 22 5
ROOT
ATOM     63  CA  MET A 421      23.123   6.331  18.396  1.00  0.00     0.172 C 
ENDROOT
BRANCH  63  64
ATOM     64  CB  MET A 421      21.941   5.905  17.517  1.00  0.00     0.046 C 
BRANCH  64  65
ATOM     65  CG  MET A 421      21.186   6.996  16.728  1.00  0.00     0.072 C 
BRANCH  65  66
ATOM     66  SD  MET A 421      21.571   7.085  14.950  1.00  0.00    -0.165 SA
ATOM     67  CE  MET A 421      22.919   8.284  15.123  1.00  0.00     0.085 C 
ENDBRANCH  65  66
ENDBRANCH  64  65
ENDBRANCH  63  64
END_RES MET A 421
BEGIN_RES ILE A 424
REMARK INDEX MAP 3 1 15 2 17 3 18 4 24 5
ROOT
ATOM     68  CA  ILE A 424      25.525  11.015  19.148  1.00  0.00     0.174 C 
ENDROOT
BRANCH  68  69
ATOM     69  CB  ILE A 424      25.748  10.310  17.816  1.00  0.00     0.018 C 
ATOM     70 CG2  ILE A 424      25.794  11.317  16.641  1.00  0.00     0.010 C 
BRANCH  69  71
ATOM     71 CG1  ILE A 424      27.058   9.492  17.873  1.00  0.00     0.002 C 
ATOM     72 CD1  ILE A 424      27.168   8.453  16.757  1.00  0.00     0.004 C 
ENDBRANCH  69  71
ENDBRANCH  68  69
END_RES ILE A 424
BEGIN_RES PHE A 425
REMARK INDEX MAP 3 1 15 2 18 3 19 4 20 5 22 6 23 7 26 8
ROOT
ATOM     73  CA  PHE A 425      21.937  12.366  19.359  1.00  0.00     0.175 C 
ENDROOT
BRANCH  73  74
ATOM     74  CB  PHE A 425      20.641  11.533  19.562  1.00  0.00     0.070 C 
BRANCH  74  75
ATOM     75  CG  PHE A 425      19.956  11.063  18.298  1.00  0.00    -0.045 A 
ATOM     76 CD1  PHE A 425      20.630  10.751  17.105  1.00  0.00     0.004 A 
ATOM     77 CD2  PHE A 425      18.559  10.912  18.325  1.00  0.00     0.004 A 
ATOM     78 CE1  PHE A 425      19.923  10.307  15.977  1.00  0.00     0.000 A 
ATOM     79 CE2  PHE A 425      17.854  10.458  17.208  1.00  0.00     0.000 A 
ATOM     80  CZ  PHE A 425      18.536  10.154  16.030  1.00  0.00     0.000 A 
ENDBRANCH  74  75
ENDBRANCH  73  74
END_RES PHE A 425
BEGIN_RES HIS A 524
REMARK INDEX MAP 3 1 15 2 18 3 19 4 20 5 21 6 22 7 25 8
ROOT
ATOM     81  CA  HIS A 524      29.389   4.697  14.351  1.00  0.00     0.177 C 
ENDROOT
BRANCH  81  82
ATOM     82  CB  HIS A 524      28.367   5.702  14.929  1.00  0.00     0.093 C 
BRANCH  82  83
ATOM     83  CG  HIS A 524      26.993   5.153  15.166  1.00  0.00     0.061 A 
ATOM     84 ND1  HIS A 524      26.038   5.212  14.174  1.00  0.00    -0.242 NA
ATOM     85 CD2  HIS A 524      26.528   4.450  16.232  1.00  0.00     0.107 A 
ATOM     86 CE1  HIS A 524      25.007   4.536  14.652  1.00  0.00     0.196 A 
ATOM     87 NE2  HIS A 524      25.259   4.056  15.887  1.00  0.00    -0.350 N 
ATOM     88 HE2  HIS A 524      24.617   3.496  16.466  1.00  0.00     0.167 HD
ENDBRANCH  82  83
ENDBRANCH  81  82
END_RES HIS A 524
BEGIN_RES LEU A 525
REMARK INDEX MAP 3 1 15 2 18 3 20 4 21 5
ROOT
ATOM     89  CA  LEU A 525      28.592   4.555  10.595  1.00  0.00     0.172 C 
ENDROOT
BRANCH  89  90
ATOM     90  CB  LEU A 525      28.638   5.731   9.592  1.00  0.00     0.038 C 
BRANCH  90  91
ATOM     91  CG  LEU A 525      28.106   5.404   8.176  1.00  0.00    -0.015 C 
ATOM     92 CD1  LEU A 525      26.630   4.979   8.171  1.00  0.00     0.007 C 
ATOM     93 CD2  LEU A 525      28.293   6.579   7.208  1.00  0.00     0.007 C 
ENDBRANCH  90  91
ENDBRANCH  89  90
END_RES LEU A 525
